# Solver information
# Time        	U_solver      	Ux_initial    	Ux_final      	Ux_iters      	Uy_initial    	Uy_final      	Uy_iters      	Uz_initial    	Uz_final      	Uz_iters      	U_converged   	p_solver      	p_initial     	p_final       	p_iters       	p_converged   
1             	smoothSolver	8.734470e-02	8.160920e-03	7	5.846450e-01	4.453730e-02	7	4.000590e-01	3.770630e-02	5	false	GAMG	1.000000e+00	5.847770e-03	5	true
2             	smoothSolver	3.849070e-02	3.800020e-03	7	3.838000e-01	3.588500e-02	7	1.640150e-01	1.322310e-02	7	false	GAMG	7.543620e-02	3.474410e-04	5	true
3             	smoothSolver	2.022520e-02	1.668600e-03	8	2.966060e-01	2.848940e-02	7	1.108910e-01	9.688280e-03	7	false	GAMG	5.183310e-02	5.068110e-04	4	true
4             	smoothSolver	1.367780e-02	1.171630e-03	8	2.366840e-01	2.186570e-02	7	1.000150e-01	8.903170e-03	7	false	GAMG	4.555240e-02	3.974850e-04	4	true
5             	smoothSolver	1.061680e-02	8.809600e-04	8	2.042760e-01	1.827290e-02	7	1.034000e-01	9.224130e-03	7	false	GAMG	4.102230e-02	3.415960e-04	4	true
6             	smoothSolver	8.502490e-03	6.813200e-04	8	1.830200e-01	1.621180e-02	7	1.091550e-01	9.791320e-03	7	false	GAMG	3.674340e-02	2.893460e-04	4	true
7             	smoothSolver	7.116770e-03	5.543730e-04	8	1.650720e-01	1.464110e-02	7	1.195120e-01	1.071420e-02	7	false	GAMG	3.281780e-02	2.389780e-04	4	true
8             	smoothSolver	6.114660e-03	4.807260e-04	8	1.468200e-01	1.298040e-02	7	1.308300e-01	1.174320e-02	7	false	GAMG	2.995960e-02	1.902390e-04	4	true
9             	smoothSolver	5.356960e-03	4.303530e-04	8	1.312400e-01	1.155240e-02	7	1.372400e-01	1.229390e-02	7	false	GAMG	2.777480e-02	1.536780e-04	4	true
10            	smoothSolver	4.782480e-03	3.919230e-04	8	1.186190e-01	1.038640e-02	7	1.222210e-01	1.097800e-02	7	false	GAMG	2.611870e-02	1.310480e-04	4	true
11            	smoothSolver	4.356690e-03	3.600080e-04	8	1.072810e-01	9.390170e-03	7	1.109270e-01	9.975710e-03	7	false	GAMG	2.500610e-02	1.223320e-04	4	true
12            	smoothSolver	4.058670e-03	3.345780e-04	8	9.701900e-02	8.543350e-03	7	1.058560e-01	9.589480e-03	7	false	GAMG	2.400150e-02	1.201950e-04	4	true
13            	smoothSolver	3.845140e-03	3.144270e-04	8	8.813270e-02	7.900560e-03	7	1.025540e-01	9.396290e-03	7	false	GAMG	2.338510e-02	1.212590e-04	4	true
14            	smoothSolver	3.684570e-03	3.005220e-04	8	8.117540e-02	7.410790e-03	7	9.740240e-02	9.032980e-03	7	false	GAMG	2.282710e-02	1.217610e-04	4	true
15            	smoothSolver	3.530330e-03	2.893960e-04	8	7.547030e-02	7.000840e-03	7	8.697630e-02	8.192830e-03	7	false	GAMG	2.226210e-02	1.214780e-04	4	true
16            	smoothSolver	3.361680e-03	2.756320e-04	8	7.031350e-02	6.572900e-03	7	7.849120e-02	7.397110e-03	7	false	GAMG	2.158460e-02	1.167820e-04	4	true
17            	smoothSolver	3.185270e-03	2.620720e-04	8	6.554030e-02	6.157050e-03	7	7.175320e-02	6.689420e-03	7	false	GAMG	2.076510e-02	1.078580e-04	4	true
18            	smoothSolver	3.012500e-03	2.479880e-04	8	6.150390e-02	5.731200e-03	7	6.600420e-02	6.101960e-03	7	false	GAMG	1.989190e-02	9.738020e-05	4	true
19            	smoothSolver	2.860410e-03	2.348810e-04	8	5.809180e-02	5.383730e-03	7	6.197460e-02	5.743020e-03	7	false	GAMG	1.919870e-02	9.237750e-05	4	true
20            	smoothSolver	2.730890e-03	2.241860e-04	8	5.545350e-02	5.127320e-03	7	5.951260e-02	5.537520e-03	7	false	GAMG	1.869290e-02	9.124900e-05	4	true
21            	smoothSolver	2.620790e-03	2.174400e-04	8	5.315410e-02	4.950490e-03	7	5.760240e-02	5.410480e-03	7	false	GAMG	1.809280e-02	9.093910e-05	4	true
22            	smoothSolver	2.518400e-03	2.126780e-04	8	5.115560e-02	4.848910e-03	7	5.555170e-02	5.283640e-03	7	false	GAMG	1.745230e-02	9.076080e-05	4	true
23            	smoothSolver	2.425190e-03	2.085360e-04	8	4.942420e-02	4.811450e-03	7	5.343200e-02	5.156360e-03	7	false	GAMG	1.682520e-02	8.711030e-05	4	true
24            	smoothSolver	2.344660e-03	2.036540e-04	8	4.814500e-02	4.762240e-03	7	5.149250e-02	5.028700e-03	7	false	GAMG	1.611710e-02	8.115190e-05	4	true
25            	smoothSolver	2.263360e-03	1.964370e-04	8	4.679240e-02	4.616790e-03	7	4.922830e-02	4.818220e-03	7	false	GAMG	1.546890e-02	7.508280e-05	4	true
26            	smoothSolver	2.179430e-03	1.884660e-04	8	4.492030e-02	4.381000e-03	7	4.630100e-02	4.510450e-03	7	false	GAMG	1.489730e-02	6.945510e-05	4	true
27            	smoothSolver	2.070310e-03	1.787890e-04	8	4.253580e-02	4.094880e-03	7	4.285050e-02	4.126100e-03	7	false	GAMG	1.436620e-02	6.688160e-05	4	true
28            	smoothSolver	1.954710e-03	1.686270e-04	8	3.983380e-02	3.802220e-03	7	3.940800e-02	3.751840e-03	7	false	GAMG	1.383350e-02	6.559390e-05	4	true
29            	smoothSolver	1.854440e-03	1.599560e-04	8	3.731370e-02	3.532700e-03	7	3.641650e-02	3.451360e-03	7	false	GAMG	1.335650e-02	6.453490e-05	4	true
30            	smoothSolver	1.759090e-03	1.511980e-04	8	3.499360e-02	3.290940e-03	7	3.394280e-02	3.190400e-03	7	false	GAMG	1.283870e-02	6.348080e-05	4	true
31            	smoothSolver	1.664140e-03	1.422180e-04	8	3.300480e-02	3.083380e-03	7	3.184040e-02	2.943880e-03	7	false	GAMG	1.237190e-02	6.104330e-05	4	true
32            	smoothSolver	1.570220e-03	1.335520e-04	8	3.124420e-02	2.885930e-03	7	2.996720e-02	2.724010e-03	7	false	GAMG	1.193710e-02	5.753070e-05	4	true
33            	smoothSolver	1.482870e-03	1.253420e-04	8	2.996960e-02	2.754620e-03	7	2.846300e-02	2.554500e-03	7	false	GAMG	1.154200e-02	5.335390e-05	4	true
34            	smoothSolver	1.405550e-03	1.179410e-04	8	2.932150e-02	2.694480e-03	7	2.728250e-02	2.413380e-03	7	false	GAMG	1.118310e-02	4.903840e-05	4	true
35            	smoothSolver	1.345850e-03	1.106860e-04	8	2.879400e-02	2.632190e-03	7	2.618320e-02	2.263100e-03	7	false	GAMG	1.085380e-02	4.621760e-05	4	true
36            	smoothSolver	1.291030e-03	1.033590e-04	8	2.819220e-02	2.532550e-03	7	2.498960e-02	2.115700e-03	7	false	GAMG	1.051270e-02	4.516200e-05	4	true
37            	smoothSolver	1.227510e-03	9.672930e-05	8	2.742070e-02	2.408040e-03	7	2.366860e-02	1.977020e-03	7	false	GAMG	1.016310e-02	4.426830e-05	4	true
38            	smoothSolver	1.161920e-03	9.105800e-05	8	2.635170e-02	2.282050e-03	7	2.223480e-02	1.845320e-03	7	false	GAMG	9.782690e-03	4.270190e-05	4	true
39            	smoothSolver	1.095600e-03	8.588140e-05	8	2.522610e-02	2.163200e-03	7	2.086290e-02	1.723820e-03	7	false	GAMG	9.375950e-03	4.136940e-05	4	true
40            	smoothSolver	1.032760e-03	8.121070e-05	8	2.404210e-02	2.042560e-03	7	1.953960e-02	1.608660e-03	7	false	GAMG	8.969790e-03	4.073620e-05	4	true
41            	smoothSolver	9.795710e-04	7.688470e-05	8	2.287570e-02	1.924130e-03	7	1.847010e-02	1.489280e-03	7	false	GAMG	8.616470e-03	4.040320e-05	4	true
42            	smoothSolver	9.300700e-04	7.271680e-05	8	2.166430e-02	1.803410e-03	7	1.760090e-02	1.394310e-03	7	false	GAMG	8.332290e-03	3.967870e-05	4	true
43            	smoothSolver	8.807290e-04	6.807680e-05	8	2.047360e-02	1.681010e-03	7	1.680200e-02	1.318300e-03	7	false	GAMG	8.038560e-03	3.838530e-05	4	true
44            	smoothSolver	8.315170e-04	6.352990e-05	8	1.933660e-02	1.579440e-03	7	1.610190e-02	1.256340e-03	7	false	GAMG	7.707610e-03	3.668780e-05	4	true
45            	smoothSolver	7.896670e-04	6.023590e-05	8	1.822330e-02	1.495730e-03	7	1.533990e-02	1.194220e-03	7	false	GAMG	7.390320e-03	3.471320e-05	4	true
46            	smoothSolver	7.543550e-04	5.802570e-05	8	1.724520e-02	1.427350e-03	7	1.460300e-02	1.139710e-03	7	false	GAMG	7.082550e-03	3.291670e-05	4	true
47            	smoothSolver	7.273240e-04	5.640860e-05	8	1.655150e-02	1.377880e-03	7	1.408850e-02	1.102330e-03	7	false	GAMG	6.790690e-03	3.161950e-05	4	true
48            	smoothSolver	7.060210e-04	5.509250e-05	8	1.605360e-02	1.339770e-03	7	1.367710e-02	1.075680e-03	7	false	GAMG	6.536110e-03	3.108200e-05	4	true
49            	smoothSolver	6.880590e-04	5.393870e-05	8	1.561700e-02	1.300670e-03	7	1.331470e-02	1.059010e-03	7	false	GAMG	6.304710e-03	3.058130e-05	4	true
50            	smoothSolver	6.715070e-04	5.217090e-05	8	1.521020e-02	1.262170e-03	7	1.292730e-02	1.041300e-03	7	false	GAMG	6.103600e-03	2.987360e-05	4	true
51            	smoothSolver	6.538160e-04	5.004750e-05	8	1.475090e-02	1.213490e-03	7	1.254790e-02	1.023140e-03	7	false	GAMG	5.923500e-03	2.873790e-05	4	true
52            	smoothSolver	6.314200e-04	4.767400e-05	8	1.421160e-02	1.161010e-03	7	1.216600e-02	9.968740e-04	7	false	GAMG	5.757410e-03	2.753780e-05	4	true
53            	smoothSolver	6.055720e-04	5.981400e-05	7	1.366120e-02	1.104630e-03	7	1.177430e-02	9.617610e-04	7	false	GAMG	5.601350e-03	2.647530e-05	4	true
54            	smoothSolver	5.807690e-04	5.730330e-05	7	1.310600e-02	1.054780e-03	7	1.139560e-02	9.225260e-04	7	false	GAMG	5.460840e-03	2.503790e-05	4	true
55            	smoothSolver	5.580430e-04	5.509870e-05	7	1.264450e-02	1.023970e-03	7	1.103430e-02	8.950530e-04	7	false	GAMG	5.289200e-03	2.355860e-05	4	true
56            	smoothSolver	5.372080e-04	5.317700e-05	7	1.222690e-02	9.964730e-04	7	1.071790e-02	8.824840e-04	7	false	GAMG	5.132620e-03	2.206090e-05	4	true
57            	smoothSolver	5.219910e-04	5.131580e-05	7	1.187390e-02	9.658770e-04	7	1.042940e-02	8.747530e-04	7	false	GAMG	4.975080e-03	2.090910e-05	4	true
58            	smoothSolver	5.090180e-04	4.968450e-05	7	1.156560e-02	9.408240e-04	7	1.017540e-02	8.636450e-04	7	false	GAMG	4.818400e-03	2.001310e-05	4	true
59            	smoothSolver	4.971290e-04	4.846750e-05	7	1.127740e-02	9.191310e-04	7	9.905540e-03	8.425890e-04	7	false	GAMG	4.656970e-03	1.962910e-05	4	true
60            	smoothSolver	4.866930e-04	4.767850e-05	7	1.096400e-02	8.986900e-04	7	9.633060e-03	8.179350e-04	7	false	GAMG	4.495150e-03	1.953620e-05	4	true
61            	smoothSolver	4.785290e-04	4.707800e-05	7	1.067630e-02	8.766310e-04	7	9.379460e-03	7.885580e-04	7	false	GAMG	4.366020e-03	1.956900e-05	4	true
62            	smoothSolver	4.711300e-04	4.664260e-05	7	1.047990e-02	8.636570e-04	7	9.165890e-03	7.639640e-04	7	false	GAMG	4.266610e-03	1.944430e-05	4	true
63            	smoothSolver	4.649940e-04	4.642530e-05	7	1.033540e-02	8.542120e-04	7	8.975490e-03	7.412410e-04	7	false	GAMG	4.172070e-03	1.920640e-05	4	true
64            	smoothSolver	4.566830e-04	3.482580e-05	8	1.016590e-02	8.451800e-04	7	8.767660e-03	7.264580e-04	7	false	GAMG	4.069090e-03	1.891800e-05	4	true
65            	smoothSolver	4.453450e-04	3.438320e-05	8	9.983890e-03	8.329440e-04	7	8.567820e-03	7.103230e-04	7	false	GAMG	3.962720e-03	1.845450e-05	4	true
66            	smoothSolver	4.318790e-04	3.356990e-05	8	9.721170e-03	8.140060e-04	7	8.334170e-03	6.929140e-04	7	false	GAMG	3.849830e-03	1.781220e-05	4	true
67            	smoothSolver	4.191390e-04	3.267260e-05	8	9.412200e-03	7.896360e-04	7	8.087440e-03	6.747250e-04	7	false	GAMG	3.734020e-03	1.689900e-05	4	true
68            	smoothSolver	4.071380e-04	3.175160e-05	8	9.083890e-03	7.655980e-04	7	7.835310e-03	6.578580e-04	7	false	GAMG	3.616380e-03	1.623450e-05	4	true
69            	smoothSolver	3.953590e-04	3.082600e-05	8	8.759050e-03	7.387150e-04	7	7.584320e-03	6.367590e-04	7	false	GAMG	3.512020e-03	1.570160e-05	4	true
70            	smoothSolver	3.820250e-04	2.972070e-05	8	8.423870e-03	7.119570e-04	7	7.344330e-03	6.154710e-04	7	false	GAMG	3.418580e-03	1.536740e-05	4	true
71            	smoothSolver	3.671390e-04	2.830050e-05	8	8.106820e-03	6.794550e-04	7	7.088570e-03	5.895740e-04	7	false	GAMG	3.325800e-03	1.460140e-05	4	true
72            	smoothSolver	3.514750e-04	2.665400e-05	8	7.824460e-03	6.513270e-04	7	6.816980e-03	5.643100e-04	7	false	GAMG	3.241960e-03	1.352870e-05	4	true
73            	smoothSolver	3.388290e-04	3.352770e-05	7	7.613480e-03	6.334450e-04	7	6.578170e-03	5.454160e-04	7	false	GAMG	3.159330e-03	1.288730e-05	4	true
74            	smoothSolver	3.299500e-04	3.244290e-05	7	7.477440e-03	6.242070e-04	7	6.414050e-03	5.357230e-04	7	false	GAMG	3.083180e-03	1.301750e-05	4	true
75            	smoothSolver	3.241730e-04	3.213220e-05	7	7.399680e-03	6.211890e-04	7	6.321160e-03	5.307550e-04	7	false	GAMG	3.016090e-03	1.335750e-05	4	true
76            	smoothSolver	3.188230e-04	2.428920e-05	8	7.327230e-03	6.154310e-04	7	6.236200e-03	5.241070e-04	7	false	GAMG	2.964890e-03	1.335070e-05	4	true
77            	smoothSolver	3.149260e-04	2.400350e-05	8	7.278400e-03	6.051470e-04	7	6.170800e-03	5.143920e-04	7	false	GAMG	2.920260e-03	1.292330e-05	4	true
78            	smoothSolver	3.098860e-04	3.091900e-05	7	7.195500e-03	5.945490e-04	7	6.059440e-03	5.017250e-04	7	false	GAMG	2.897560e-03	1.257760e-05	4	true
79            	smoothSolver	3.073980e-04	3.013660e-05	7	7.059280e-03	5.817160e-04	7	5.941970e-03	4.872210e-04	7	false	GAMG	2.883890e-03	1.253930e-05	4	true
80            	smoothSolver	3.044140e-04	2.947890e-05	7	6.912150e-03	5.678990e-04	7	5.836520e-03	4.744200e-04	7	false	GAMG	2.872350e-03	1.278840e-05	4	true
81            	smoothSolver	3.004200e-04	2.894040e-05	7	6.802580e-03	5.567960e-04	7	5.769020e-03	4.653850e-04	7	false	GAMG	2.868450e-03	1.300510e-05	4	true
82            	smoothSolver	2.954670e-04	2.862390e-05	7	6.712970e-03	5.503990e-04	7	5.692450e-03	4.568800e-04	7	false	GAMG	2.859410e-03	1.300990e-05	4	true
83            	smoothSolver	2.922650e-04	2.836140e-05	7	6.656850e-03	5.409690e-04	7	5.627020e-03	4.460270e-04	7	false	GAMG	2.831400e-03	1.256130e-05	4	true
84            	smoothSolver	2.875610e-04	2.807290e-05	7	6.565260e-03	5.324430e-04	7	5.507620e-03	4.312640e-04	7	false	GAMG	2.793550e-03	1.214100e-05	4	true
85            	smoothSolver	2.848080e-04	2.795270e-05	7	6.468550e-03	5.259760e-04	7	5.395630e-03	4.170830e-04	7	false	GAMG	2.748530e-03	1.210710e-05	4	true
86            	smoothSolver	2.827480e-04	2.807660e-05	7	6.370070e-03	5.258320e-04	7	5.278530e-03	4.068520e-04	7	false	GAMG	2.703520e-03	1.248350e-05	4	true
87            	smoothSolver	2.814880e-04	2.132400e-05	8	6.291320e-03	5.246270e-04	7	5.196450e-03	4.028700e-04	7	false	GAMG	2.662950e-03	1.275500e-05	4	true
88            	smoothSolver	2.801790e-04	2.134650e-05	8	6.293840e-03	5.297190e-04	7	5.165510e-03	4.037620e-04	7	false	GAMG	2.640720e-03	1.287120e-05	4	true
89            	smoothSolver	2.802600e-04	2.130360e-05	8	6.336940e-03	5.328070e-04	7	5.159070e-03	4.080680e-04	7	false	GAMG	2.618650e-03	1.261020e-05	4	true
90            	smoothSolver	2.779420e-04	2.106860e-05	8	6.354340e-03	5.267780e-04	7	5.115200e-03	4.094030e-04	7	false	GAMG	2.609000e-03	1.225340e-05	4	true
91            	smoothSolver	2.770340e-04	2.743720e-05	7	6.344210e-03	5.217060e-04	7	5.094440e-03	4.116850e-04	7	false	GAMG	2.589660e-03	1.197840e-05	4	true
92            	smoothSolver	2.749370e-04	2.697820e-05	7	6.267430e-03	5.164330e-04	7	5.046830e-03	4.130360e-04	7	false	GAMG	2.579040e-03	1.168660e-05	4	true
93            	smoothSolver	2.732130e-04	2.633530e-05	7	6.189730e-03	5.104610e-04	7	5.025190e-03	4.120020e-04	7	false	GAMG	2.565880e-03	1.157730e-05	4	true
94            	smoothSolver	2.707010e-04	2.593150e-05	7	6.085540e-03	5.039120e-04	7	5.000560e-03	4.104260e-04	7	false	GAMG	2.559010e-03	1.162030e-05	4	true
95            	smoothSolver	2.691570e-04	2.589750e-05	7	6.013870e-03	5.014820e-04	7	4.990010e-03	4.088890e-04	7	false	GAMG	2.542220e-03	1.155510e-05	4	true
96            	smoothSolver	2.648580e-04	2.581070e-05	7	5.913560e-03	4.972640e-04	7	4.942190e-03	4.045860e-04	7	false	GAMG	2.528430e-03	1.137920e-05	4	true
97            	smoothSolver	2.615100e-04	2.561200e-05	7	5.846440e-03	4.922400e-04	7	4.896230e-03	4.015560e-04	7	false	GAMG	2.504400e-03	1.090220e-05	4	true
98            	smoothSolver	2.572820e-04	2.559110e-05	7	5.774170e-03	4.868030e-04	7	4.838080e-03	3.974330e-04	7	false	GAMG	2.475320e-03	1.066230e-05	4	true
99            	smoothSolver	2.535510e-04	2.527970e-05	7	5.717100e-03	4.844380e-04	7	4.789340e-03	3.940310e-04	7	false	GAMG	2.442400e-03	1.064790e-05	4	true
100           	smoothSolver	2.507150e-04	1.917180e-05	8	5.657420e-03	4.844370e-04	7	4.754140e-03	3.907900e-04	7	false	GAMG	2.416840e-03	1.094080e-05	4	true
101           	smoothSolver	2.481710e-04	1.930010e-05	8	5.627350e-03	4.856510e-04	7	4.733080e-03	3.882480e-04	7	false	GAMG	2.393150e-03	1.107300e-05	4	true
102           	smoothSolver	2.456460e-04	1.955430e-05	8	5.605040e-03	4.872690e-04	7	4.692280e-03	3.846920e-04	7	false	GAMG	2.378170e-03	1.107670e-05	4	true
103           	smoothSolver	2.447460e-04	1.954030e-05	8	5.567870e-03	4.823500e-04	7	4.634170e-03	3.779430e-04	7	false	GAMG	2.358270e-03	1.081640e-05	4	true
104           	smoothSolver	2.421760e-04	1.927720e-05	8	5.492840e-03	4.700230e-04	7	4.543580e-03	3.687430e-04	7	false	GAMG	2.341940e-03	1.026150e-05	4	true
105           	smoothSolver	2.394260e-04	1.870640e-05	8	5.420510e-03	4.544020e-04	7	4.466150e-03	3.602470e-04	7	false	GAMG	2.328670e-03	9.346750e-06	4	true
106           	smoothSolver	2.344280e-04	1.780120e-05	8	5.330490e-03	4.429510e-04	7	4.390970e-03	3.522560e-04	7	false	GAMG	2.320550e-03	8.641320e-06	4	true
107           	smoothSolver	2.288970e-04	2.231020e-05	7	5.242270e-03	4.318440e-04	7	4.333860e-03	3.446150e-04	7	false	GAMG	2.316650e-03	8.406470e-06	4	true
108           	smoothSolver	2.226310e-04	2.135480e-05	7	5.164330e-03	4.219040e-04	7	4.256050e-03	3.347850e-04	7	false	GAMG	2.311030e-03	8.550230e-06	4	true
109           	smoothSolver	2.175140e-04	2.072000e-05	7	5.116020e-03	4.136950e-04	7	4.202470e-03	3.266520e-04	7	false	GAMG	2.294040e-03	8.705580e-06	4	true
110           	smoothSolver	2.127750e-04	2.041000e-05	7	5.068550e-03	4.103360e-04	7	4.126970e-03	3.182140e-04	7	false	GAMG	2.262420e-03	8.954450e-06	4	true
111           	smoothSolver	2.090950e-04	2.029600e-05	7	4.989720e-03	4.044950e-04	7	4.057990e-03	3.116240e-04	7	false	GAMG	2.207380e-03	9.056640e-06	4	true
112           	smoothSolver	2.051280e-04	2.025820e-05	7	4.865850e-03	3.974330e-04	7	3.969180e-03	3.057120e-04	7	false	GAMG	2.151840e-03	8.824410e-06	4	true
113           	smoothSolver	2.029540e-04	2.027350e-05	7	4.742270e-03	3.892350e-04	7	3.896550e-03	3.008530e-04	7	false	GAMG	2.088040e-03	8.513980e-06	4	true
114           	smoothSolver	2.010160e-04	1.530070e-05	8	4.634390e-03	3.809650e-04	7	3.823590e-03	2.967310e-04	7	false	GAMG	2.027770e-03	8.255240e-06	4	true
115           	smoothSolver	1.981430e-04	1.506820e-05	8	4.545450e-03	3.728910e-04	7	3.748300e-03	2.926090e-04	7	false	GAMG	1.967650e-03	8.218980e-06	4	true
116           	smoothSolver	1.938610e-04	1.470190e-05	8	4.445640e-03	3.631020e-04	7	3.660960e-03	2.882670e-04	7	false	GAMG	1.918750e-03	8.012510e-06	4	true
117           	smoothSolver	1.896530e-04	1.895410e-05	7	4.336430e-03	3.506660e-04	7	3.564860e-03	2.812830e-04	7	false	GAMG	1.870510e-03	7.766930e-06	4	true
118           	smoothSolver	1.846850e-04	1.833140e-05	7	4.200390e-03	3.374880e-04	7	3.456570e-03	2.711330e-04	7	false	GAMG	1.827350e-03	7.381890e-06	4	true
119           	smoothSolver	1.794400e-04	1.747320e-05	7	4.061640e-03	3.221660e-04	7	3.347720e-03	2.596860e-04	7	false	GAMG	1.788880e-03	7.110820e-06	4	true
120           	smoothSolver	1.737320e-04	1.665870e-05	7	3.908710e-03	3.062740e-04	7	3.241310e-03	2.465280e-04	7	false	GAMG	1.753800e-03	6.776700e-06	4	true
121           	smoothSolver	1.686110e-04	1.592960e-05	7	3.780780e-03	2.900980e-04	7	3.144830e-03	2.338660e-04	7	false	GAMG	1.721840e-03	6.520050e-06	4	true
122           	smoothSolver	1.631120e-04	1.541000e-05	7	3.653530e-03	2.758290e-04	7	3.047250e-03	2.980890e-04	6	false	GAMG	1.691750e-03	6.196120e-06	4	true
123           	smoothSolver	1.592790e-04	1.489720e-05	7	3.567940e-03	2.627530e-04	7	2.981460e-03	2.870040e-04	6	false	GAMG	1.657520e-03	1.644400e-05	3	true
124           	smoothSolver	1.536800e-04	1.439880e-05	7	3.446540e-03	3.394830e-04	6	2.886050e-03	2.743190e-04	6	false	GAMG	1.625640e-03	6.563840e-06	4	true
125           	smoothSolver	1.512620e-04	1.399540e-05	7	3.424500e-03	3.366800e-04	6	2.846590e-03	2.717420e-04	6	false	GAMG	1.591470e-03	1.580480e-05	3	true
126           	smoothSolver	1.459750e-04	1.349200e-05	7	3.309820e-03	3.224870e-04	6	2.745020e-03	2.605120e-04	6	false	GAMG	1.558820e-03	6.615280e-06	4	true
127           	smoothSolver	1.436650e-04	1.311230e-05	7	3.275500e-03	3.241360e-04	6	2.702460e-03	2.602130e-04	6	false	GAMG	1.519120e-03	5.839780e-06	4	true
128           	smoothSolver	1.385860e-04	1.266550e-05	7	3.164500e-03	3.161720e-04	6	2.615580e-03	2.538930e-04	6	false	GAMG	1.487850e-03	5.666610e-06	4	true
129           	smoothSolver	1.350340e-04	1.230540e-05	7	3.082830e-03	2.298390e-04	7	2.551200e-03	2.496010e-04	6	false	GAMG	1.454720e-03	5.544700e-06	4	true
130           	smoothSolver	1.309390e-04	1.211590e-05	7	2.992740e-03	2.263290e-04	7	2.486770e-03	2.458410e-04	6	false	GAMG	1.428160e-03	5.444150e-06	4	true
131           	smoothSolver	1.282500e-04	1.198360e-05	7	2.937420e-03	2.228450e-04	7	2.437730e-03	2.426430e-04	6	false	GAMG	1.399200e-03	5.355380e-06	4	true
132           	smoothSolver	1.255880e-04	1.194810e-05	7	2.871340e-03	2.184190e-04	7	2.385610e-03	2.381940e-04	6	false	GAMG	1.374040e-03	5.340320e-06	4	true
133           	smoothSolver	1.246910e-04	1.192280e-05	7	2.832300e-03	2.145440e-04	7	2.346490e-03	1.745510e-04	7	false	GAMG	1.347520e-03	5.360130e-06	4	true
134           	smoothSolver	1.234410e-04	1.188390e-05	7	2.778750e-03	2.091570e-04	7	2.301540e-03	1.712980e-04	7	false	GAMG	1.330280e-03	5.209490e-06	4	true
135           	smoothSolver	1.231280e-04	1.180430e-05	7	2.750370e-03	2.045730e-04	7	2.272110e-03	2.263710e-04	6	false	GAMG	1.319990e-03	1.310220e-05	3	true
136           	smoothSolver	1.214070e-04	1.160820e-05	7	2.698170e-03	2.683840e-04	6	2.233130e-03	2.213740e-04	6	false	GAMG	1.315530e-03	5.374080e-06	4	true
137           	smoothSolver	1.212860e-04	1.141330e-05	7	2.713950e-03	2.690620e-04	6	2.242640e-03	2.210760e-04	6	false	GAMG	1.313610e-03	1.305510e-05	3	true
138           	smoothSolver	1.191580e-04	1.105680e-05	7	2.696190e-03	2.640230e-04	6	2.215960e-03	2.155330e-04	6	false	GAMG	1.310580e-03	5.172910e-06	4	true
139           	smoothSolver	1.187790e-04	1.079080e-05	7	2.712630e-03	2.669390e-04	6	2.229670e-03	2.147570e-04	6	false	GAMG	1.306900e-03	1.297940e-05	3	true
140           	smoothSolver	1.163510e-04	1.040580e-05	7	2.685460e-03	2.628920e-04	6	2.207730e-03	2.100960e-04	6	false	GAMG	1.310880e-03	5.145280e-06	4	true
141           	smoothSolver	1.157730e-04	1.014260e-05	7	2.729060e-03	2.665390e-04	6	2.229280e-03	2.103360e-04	6	false	GAMG	1.305090e-03	4.894990e-06	4	true
142           	smoothSolver	1.135890e-04	9.823160e-06	7	2.710020e-03	2.650200e-04	6	2.215110e-03	2.071140e-04	6	false	GAMG	1.302170e-03	4.988580e-06	4	true
143           	smoothSolver	1.122260e-04	9.643120e-06	7	2.706000e-03	2.642540e-04	6	2.205640e-03	2.051870e-04	6	false	GAMG	1.299360e-03	5.138470e-06	4	true
144           	smoothSolver	1.107020e-04	9.557790e-06	7	2.695160e-03	2.654210e-04	6	2.195060e-03	2.043720e-04	6	false	GAMG	1.299220e-03	5.327950e-06	4	true
145           	smoothSolver	1.105040e-04	9.560670e-06	7	2.691500e-03	2.676740e-04	6	2.201280e-03	2.052300e-04	6	false	GAMG	1.293240e-03	5.390060e-06	4	true
146           	smoothSolver	1.099150e-04	9.593990e-06	7	2.692260e-03	1.996240e-04	7	2.192260e-03	2.057090e-04	6	false	GAMG	1.291140e-03	5.516310e-06	4	true
147           	smoothSolver	1.103780e-04	9.591340e-06	7	2.687740e-03	1.997690e-04	7	2.201930e-03	2.075990e-04	6	false	GAMG	1.286420e-03	5.508060e-06	4	true
148           	smoothSolver	1.099470e-04	9.511240e-06	7	2.681130e-03	2.003960e-04	7	2.199160e-03	2.079130e-04	6	false	GAMG	1.286330e-03	5.391800e-06	4	true
149           	smoothSolver	1.102970e-04	9.410830e-06	7	2.681350e-03	2.014900e-04	7	2.193400e-03	2.086040e-04	6	false	GAMG	1.287820e-03	5.280660e-06	4	true
150           	smoothSolver	1.098720e-04	9.323570e-06	7	2.674600e-03	2.015660e-04	7	2.179850e-03	2.083000e-04	6	false	GAMG	1.293160e-03	5.163410e-06	4	true
151           	smoothSolver	1.098910e-04	9.229730e-06	7	2.674840e-03	2.003990e-04	7	2.177830e-03	2.080440e-04	6	false	GAMG	1.290920e-03	5.109650e-06	4	true
152           	smoothSolver	1.085940e-04	9.185880e-06	7	2.659620e-03	1.967140e-04	7	2.164210e-03	2.074280e-04	6	false	GAMG	1.294930e-03	5.003200e-06	4	true
153           	smoothSolver	1.082600e-04	9.154450e-06	7	2.638070e-03	2.620500e-04	6	2.155420e-03	2.058180e-04	6	false	GAMG	1.295860e-03	4.958390e-06	4	true
154           	smoothSolver	1.069440e-04	9.138370e-06	7	2.629360e-03	2.587140e-04	6	2.140890e-03	2.045890e-04	6	false	GAMG	1.300160e-03	4.937150e-06	4	true
155           	smoothSolver	1.071560e-04	9.116330e-06	7	2.629160e-03	2.556870e-04	6	2.142850e-03	2.038870e-04	6	false	GAMG	1.300600e-03	5.016830e-06	4	true
156           	smoothSolver	1.063850e-04	9.134680e-06	7	2.608620e-03	2.546110e-04	6	2.141380e-03	2.040760e-04	6	false	GAMG	1.301350e-03	4.959060e-06	4	true
157           	smoothSolver	1.065210e-04	9.185340e-06	7	2.592930e-03	2.524280e-04	6	2.141220e-03	2.035700e-04	6	false	GAMG	1.299100e-03	4.960460e-06	4	true
158           	smoothSolver	1.059380e-04	9.284940e-06	7	2.576680e-03	2.533600e-04	6	2.129370e-03	2.040310e-04	6	false	GAMG	1.295870e-03	1.289770e-05	3	true
159           	smoothSolver	1.061160e-04	9.324140e-06	7	2.546360e-03	2.502130e-04	6	2.106590e-03	2.006940e-04	6	false	GAMG	1.292290e-03	5.324580e-06	4	true
160           	smoothSolver	1.064880e-04	9.466610e-06	7	2.557670e-03	2.553620e-04	6	2.110990e-03	2.032570e-04	6	false	GAMG	1.286060e-03	1.264180e-05	3	true
161           	smoothSolver	1.064450e-04	9.430070e-06	7	2.533840e-03	2.518930e-04	6	2.085660e-03	1.992090e-04	6	false	GAMG	1.286350e-03	5.180010e-06	4	true
162           	smoothSolver	1.071130e-04	9.495260e-06	7	2.564810e-03	1.906170e-04	7	2.095490e-03	2.011120e-04	6	false	GAMG	1.284780e-03	1.268800e-05	3	true
163           	smoothSolver	1.067840e-04	9.365290e-06	7	2.545110e-03	2.536070e-04	6	2.083880e-03	1.972200e-04	6	false	GAMG	1.286130e-03	5.099930e-06	4	true
164           	smoothSolver	1.063560e-04	9.288290e-06	7	2.579840e-03	1.895900e-04	7	2.089800e-03	1.980880e-04	6	false	GAMG	1.291880e-03	4.677300e-06	4	true
165           	smoothSolver	1.060100e-04	9.118790e-06	7	2.574700e-03	2.535640e-04	6	2.089220e-03	1.939100e-04	6	false	GAMG	1.291850e-03	4.694530e-06	4	true
166           	smoothSolver	1.039670e-04	8.867730e-06	7	2.553920e-03	2.497150e-04	6	2.064470e-03	1.894790e-04	6	false	GAMG	1.288460e-03	4.720830e-06	4	true
167           	smoothSolver	1.025870e-04	8.637420e-06	7	2.542400e-03	2.443430e-04	6	2.043790e-03	1.841020e-04	6	false	GAMG	1.284960e-03	4.798840e-06	4	true
168           	smoothSolver	1.013290e-04	8.476640e-06	7	2.531620e-03	2.410870e-04	6	2.019930e-03	1.798160e-04	6	false	GAMG	1.283620e-03	4.866430e-06	4	true
169           	smoothSolver	1.009330e-04	8.287750e-06	7	2.520590e-03	2.376690e-04	6	2.004810e-03	1.753630e-04	6	false	GAMG	1.276090e-03	1.270870e-05	3	true
170           	smoothSolver	9.887590e-05	8.097950e-06	7	2.476950e-03	2.312700e-04	6	1.967850e-03	1.700300e-04	6	false	GAMG	1.278540e-03	5.554100e-06	4	true
171           	smoothSolver	9.984420e-05	8.095400e-06	7	2.503940e-03	2.366580e-04	6	1.978030e-03	1.713590e-04	6	false	GAMG	1.275360e-03	1.232250e-05	3	true
172           	smoothSolver	9.832150e-05	7.945370e-06	7	2.467310e-03	2.318740e-04	6	1.940720e-03	1.673090e-04	6	false	GAMG	1.278720e-03	5.429370e-06	4	true
173           	smoothSolver	9.972720e-05	8.013540e-06	7	2.517630e-03	2.406790e-04	6	1.963640e-03	1.709490e-04	6	false	GAMG	1.283880e-03	1.228710e-05	3	true
174           	smoothSolver	9.930940e-05	8.001370e-06	7	2.500020e-03	2.388970e-04	6	1.956350e-03	1.707080e-04	6	false	GAMG	1.288110e-03	5.210030e-06	4	true
175           	smoothSolver	1.007310e-04	8.134650e-06	7	2.549840e-03	2.482900e-04	6	1.993370e-03	1.770320e-04	6	false	GAMG	1.288810e-03	1.236880e-05	3	true
176           	smoothSolver	9.969090e-05	8.120310e-06	7	2.535450e-03	2.467130e-04	6	1.988000e-03	1.782120e-04	6	false	GAMG	1.297510e-03	5.103380e-06	4	true
177           	smoothSolver	1.016560e-04	8.254180e-06	7	2.594860e-03	2.548520e-04	6	2.039220e-03	1.846030e-04	6	false	GAMG	1.295590e-03	1.251000e-05	3	true
178           	smoothSolver	1.008160e-04	8.185660e-06	7	2.577530e-03	2.513080e-04	6	2.030160e-03	1.849340e-04	6	false	GAMG	1.297550e-03	5.166450e-06	4	true
179           	smoothSolver	1.016330e-04	8.240440e-06	7	2.619770e-03	2.580570e-04	6	2.062150e-03	1.898830e-04	6	false	GAMG	1.296700e-03	1.258940e-05	3	true
180           	smoothSolver	1.004720e-04	8.143570e-06	7	2.590990e-03	2.532380e-04	6	2.050540e-03	1.894090e-04	6	false	GAMG	1.295350e-03	5.247460e-06	4	true
181           	smoothSolver	1.014430e-04	8.239230e-06	7	2.620250e-03	2.597230e-04	6	2.074790e-03	1.939150e-04	6	false	GAMG	1.294100e-03	1.257630e-05	3	true
182           	smoothSolver	1.004330e-04	8.256310e-06	7	2.589500e-03	2.547180e-04	6	2.058930e-03	1.930010e-04	6	false	GAMG	1.296420e-03	5.247310e-06	4	true
183           	smoothSolver	1.018170e-04	8.455470e-06	7	2.627820e-03	2.619820e-04	6	2.084780e-03	1.979970e-04	6	false	GAMG	1.295640e-03	1.267920e-05	3	true
184           	smoothSolver	1.017430e-04	8.594590e-06	7	2.602400e-03	2.590940e-04	6	2.076310e-03	1.977140e-04	6	false	GAMG	1.297930e-03	5.257350e-06	4	true
185           	smoothSolver	1.041940e-04	8.965740e-06	7	2.661830e-03	2.006690e-04	7	2.111030e-03	2.046920e-04	6	false	GAMG	1.303460e-03	4.912400e-06	4	true
186           	smoothSolver	1.058450e-04	9.346200e-06	7	2.690760e-03	2.048030e-04	7	2.132890e-03	2.104920e-04	6	false	GAMG	1.310940e-03	5.005060e-06	4	true
187           	smoothSolver	1.086650e-04	9.728370e-06	7	2.741310e-03	2.105330e-04	7	2.154920e-03	2.149410e-04	6	false	GAMG	1.312230e-03	5.152980e-06	4	true
188           	smoothSolver	1.110930e-04	1.016390e-05	7	2.794180e-03	2.183050e-04	7	2.178980e-03	1.647440e-04	7	false	GAMG	1.325850e-03	5.327440e-06	4	true
189           	smoothSolver	1.153810e-04	1.065850e-05	7	2.887690e-03	2.285560e-04	7	2.211390e-03	1.681940e-04	7	false	GAMG	1.336920e-03	5.467940e-06	4	true
190           	smoothSolver	1.187790e-04	1.108680e-05	7	2.979420e-03	2.389830e-04	7	2.249020e-03	1.730350e-04	7	false	GAMG	1.354680e-03	5.593900e-06	4	true