# Force and moment coefficients
# dragDir     : (1.000000e+00 0.000000e+00 0.000000e+00)
# sideDir     : (0.000000e+00 1.000000e+00 0.000000e+00)
# liftDir     : (0.000000e+00 0.000000e+00 1.000000e+00)
# rollAxis    : (1.000000e+00 0.000000e+00 0.000000e+00)
# pitchAxis   : (0.000000e+00 1.000000e+00 0.000000e+00)
# yawAxis     : (0.000000e+00 0.000000e+00 1.000000e+00)
# magUInf     : 2.000000e+01
# lRef        : 1.420000e+00
# Aref        : 7.500000e-01
# CofR        : (7.200000e-01 0.000000e+00 0.000000e+00)
#
# Time        	Cd            	Cd(f)         	Cd(r)         	Cl            	Cl(f)         	Cl(r)         	CmPitch       	CmRoll        	CmYaw         	Cs            	Cs(f)         	Cs(r)         
1             	1.343761e+00	6.757793e-01	6.679814e-01	-3.823761e-02	5.537788e-01	-5.920164e-01	5.728976e-01	3.898995e-03	-2.191709e-03	-2.284541e-02	-1.361441e-02	-9.230993e-03
2             	1.530144e+00	7.724485e-01	7.576955e-01	-5.449401e-02	6.272645e-01	-6.817585e-01	6.545115e-01	7.376510e-03	-3.529159e-03	-3.237730e-02	-1.971781e-02	-1.265949e-02
3             	1.333058e+00	6.734933e-01	6.595645e-01	-4.031822e-02	5.509968e-01	-5.913150e-01	5.711559e-01	6.964385e-03	-1.584082e-03	-2.963910e-02	-1.640363e-02	-1.323547e-02
4             	1.082260e+00	5.452671e-01	5.369932e-01	-2.832345e-02	4.479946e-01	-4.763181e-01	4.621564e-01	4.136960e-03	1.573073e-03	-2.103249e-02	-8.943173e-03	-1.208932e-02
5             	8.785204e-01	4.397065e-01	4.388139e-01	-1.891569e-02	3.624577e-01	-3.813734e-01	3.719155e-01	4.463062e-04	4.405648e-03	-1.187925e-02	-1.533974e-03	-1.034527e-02
6             	7.266537e-01	3.624274e-01	3.642264e-01	-5.724094e-03	3.019204e-01	-3.076445e-01	3.047824e-01	-8.995006e-04	4.477778e-03	-9.071290e-03	-5.786703e-05	-9.013423e-03
7             	6.212003e-01	3.099107e-01	3.112896e-01	5.596310e-03	2.609894e-01	-2.553931e-01	2.581913e-01	-6.894323e-04	2.602024e-03	-9.872631e-03	-2.334291e-03	-7.538340e-03
8             	5.526334e-01	2.769688e-01	2.756646e-01	1.176376e-02	2.335818e-01	-2.218180e-01	2.276999e-01	6.520941e-04	-5.855764e-04	-1.356996e-02	-7.370558e-03	-6.199405e-03
9             	5.094159e-01	2.575707e-01	2.518451e-01	1.436637e-02	2.153665e-01	-2.010001e-01	2.081833e-01	2.862810e-03	-4.138061e-03	-1.906183e-02	-1.366898e-02	-5.392855e-03
10            	4.814092e-01	2.454008e-01	2.360084e-01	1.634852e-02	2.030794e-01	-1.867308e-01	1.949051e-01	4.696231e-03	-6.966401e-03	-2.314553e-02	-1.853917e-02	-4.606363e-03
11            	4.625212e-01	2.374052e-01	2.251160e-01	1.940057e-02	1.953186e-01	-1.759181e-01	1.856183e-01	6.144643e-03	-8.619471e-03	-2.558200e-02	-2.141047e-02	-4.171531e-03
12            	4.498439e-01	2.313580e-01	2.184859e-01	2.475110e-02	1.922658e-01	-1.675147e-01	1.798903e-01	6.436022e-03	-8.814147e-03	-2.529488e-02	-2.146159e-02	-3.833295e-03
13            	4.421213e-01	2.272011e-01	2.149202e-01	3.122853e-02	1.925209e-01	-1.612923e-01	1.769066e-01	6.140475e-03	-8.385994e-03	-2.407905e-02	-2.042552e-02	-3.653533e-03
14            	4.381483e-01	2.247948e-01	2.133535e-01	3.732876e-02	1.951294e-01	-1.578006e-01	1.764650e-01	5.720684e-03	-7.948296e-03	-2.300240e-02	-1.944950e-02	-3.552905e-03
15            	4.353947e-01	2.232750e-01	2.121197e-01	4.381137e-02	1.987759e-01	-1.549645e-01	1.768702e-01	5.577625e-03	-7.720009e-03	-2.263236e-02	-1.903619e-02	-3.596169e-03
16            	4.330363e-01	2.221543e-01	2.108821e-01	4.965935e-02	2.022221e-01	-1.525628e-01	1.773925e-01	5.636117e-03	-8.130194e-03	-2.310048e-02	-1.968043e-02	-3.420047e-03
17            	4.312654e-01	2.214148e-01	2.098506e-01	5.416780e-02	2.048312e-01	-1.506634e-01	1.777473e-01	5.782103e-03	-9.004787e-03	-2.376470e-02	-2.088714e-02	-2.877563e-03
18            	4.296731e-01	2.205425e-01	2.091306e-01	5.667269e-02	2.061401e-01	-1.494674e-01	1.778037e-01	5.705985e-03	-9.458477e-03	-2.364543e-02	-2.128119e-02	-2.364238e-03
19            	4.277975e-01	2.191743e-01	2.086233e-01	5.686383e-02	2.058913e-01	-1.490275e-01	1.774594e-01	5.275485e-03	-9.050140e-03	-2.242636e-02	-2.026332e-02	-2.163041e-03
20            	4.263899e-01	2.174979e-01	2.088920e-01	5.566288e-02	2.049441e-01	-1.492813e-01	1.771127e-01	4.302943e-03	-7.741440e-03	-1.938355e-02	-1.743321e-02	-1.950333e-03
21            	4.249458e-01	2.158188e-01	2.091270e-01	5.409416e-02	2.037184e-01	-1.496243e-01	1.766714e-01	3.345906e-03	-5.677413e-03	-1.552971e-02	-1.344227e-02	-2.087444e-03
22            	4.235529e-01	2.142851e-01	2.092678e-01	5.296483e-02	2.022834e-01	-1.493186e-01	1.758010e-01	2.508618e-03	-3.272078e-03	-1.146524e-02	-9.004699e-03	-2.460542e-03
23            	4.219229e-01	2.128213e-01	2.091016e-01	5.245474e-02	2.004853e-01	-1.480306e-01	1.742580e-01	1.859817e-03	-1.088514e-03	-8.183290e-03	-5.180159e-03	-3.003131e-03
24            	4.203854e-01	2.115713e-01	2.088141e-01	5.237353e-02	1.983727e-01	-1.459992e-01	1.721860e-01	1.378630e-03	5.210733e-04	-5.885846e-03	-2.421850e-03	-3.463996e-03
25            	4.190769e-01	2.106591e-01	2.084179e-01	5.307710e-02	1.962978e-01	-1.432207e-01	1.697592e-01	1.120585e-03	1.456774e-03	-4.794240e-03	-9.403459e-04	-3.853895e-03
26            	4.180615e-01	2.103153e-01	2.077462e-01	5.428992e-02	1.948191e-01	-1.405292e-01	1.676742e-01	1.284531e-03	1.710965e-03	-5.367540e-03	-9.728055e-04	-4.394735e-03
27            	4.170319e-01	2.100715e-01	2.069603e-01	5.616245e-02	1.939264e-01	-1.377640e-01	1.658452e-01	1.555601e-03	1.398166e-03	-6.930075e-03	-2.066871e-03	-4.863204e-03
28            	4.156974e-01	2.095232e-01	2.061743e-01	5.824807e-02	1.932458e-01	-1.349977e-01	1.641217e-01	1.674452e-03	8.963577e-04	-8.634052e-03	-3.420668e-03	-5.213384e-03
29            	4.142229e-01	2.084488e-01	2.057740e-01	6.038148e-02	1.927389e-01	-1.323574e-01	1.625482e-01	1.337409e-03	5.624969e-04	-9.418021e-03	-4.146514e-03	-5.271507e-03
30            	4.127284e-01	2.070356e-01	2.056929e-01	6.239476e-02	1.924652e-01	-1.300704e-01	1.612678e-01	6.713432e-04	7.580038e-04	-9.059743e-03	-3.771868e-03	-5.287875e-03
31            	4.114724e-01	2.054934e-01	2.059790e-01	6.437170e-02	1.924556e-01	-1.280839e-01	1.602697e-01	-2.427907e-04	1.597062e-03	-7.540227e-03	-2.173051e-03	-5.367176e-03
32            	4.105921e-01	2.040939e-01	2.064983e-01	6.613844e-02	1.926184e-01	-1.264800e-01	1.595492e-01	-1.202219e-03	2.778390e-03	-5.489619e-03	3.358052e-05	-5.523199e-03
33            	4.101725e-01	2.029171e-01	2.072554e-01	6.742993e-02	1.928320e-01	-1.254020e-01	1.591170e-01	-2.169169e-03	3.951904e-03	-3.280030e-03	2.311889e-03	-5.591919e-03
34            	4.102358e-01	2.019241e-01	2.083118e-01	6.824075e-02	1.930822e-01	-1.248415e-01	1.589619e-01	-3.193852e-03	4.804726e-03	-1.171608e-03	4.218922e-03	-5.390529e-03
35            	4.105744e-01	2.009565e-01	2.096179e-01	6.883761e-02	1.933192e-01	-1.244816e-01	1.589004e-01	-4.330729e-03	5.258413e-03	8.616652e-04	5.689245e-03	-4.827580e-03
36            	4.108844e-01	1.999356e-01	2.109488e-01	6.938799e-02	1.935022e-01	-1.241142e-01	1.588082e-01	-5.506606e-03	5.430648e-03	2.787254e-03	6.824275e-03	-4.037021e-03
37            	4.110070e-01	1.988433e-01	2.121637e-01	6.997707e-02	1.936115e-01	-1.236344e-01	1.586229e-01	-6.660213e-03	5.471712e-03	4.744931e-03	7.844178e-03	-3.099247e-03
38            	4.107523e-01	1.976461e-01	2.131063e-01	7.022217e-02	1.935131e-01	-1.232909e-01	1.584020e-01	-7.730106e-03	5.520944e-03	6.770219e-03	8.906053e-03	-2.135834e-03
39            	4.101893e-01	1.964693e-01	2.137200e-01	6.994921e-02	1.931646e-01	-1.232154e-01	1.581900e-01	-8.625371e-03	5.598371e-03	8.691636e-03	9.944189e-03	-1.252553e-03
40            	4.093545e-01	1.954857e-01	2.138688e-01	6.941560e-02	1.927358e-01	-1.233202e-01	1.580280e-01	-9.191529e-03	5.684492e-03	1.005515e-02	1.071207e-02	-6.569191e-04
41            	4.085585e-01	1.948642e-01	2.136942e-01	6.885369e-02	1.922339e-01	-1.233802e-01	1.578071e-01	-9.415016e-03	5.718845e-03	1.075775e-02	1.109772e-02	-3.399696e-04
42            	4.077452e-01	1.944903e-01	2.132549e-01	6.868492e-02	1.918899e-01	-1.232050e-01	1.575475e-01	-9.382289e-03	5.724827e-03	1.085998e-02	1.115481e-02	-2.948382e-04
43            	4.071659e-01	1.943626e-01	2.128033e-01	6.884580e-02	1.917222e-01	-1.228764e-01	1.572993e-01	-9.220356e-03	5.724189e-03	1.065885e-02	1.105361e-02	-3.947654e-04
44            	4.066780e-01	1.943383e-01	2.123397e-01	6.914910e-02	1.916771e-01	-1.225280e-01	1.571026e-01	-9.000711e-03	5.786318e-03	1.030091e-02	1.093677e-02	-6.358622e-04
45            	4.063630e-01	1.943850e-01	2.119781e-01	6.937193e-02	1.916065e-01	-1.222345e-01	1.569205e-01	-8.796554e-03	5.939057e-03	9.953048e-03	1.091558e-02	-9.625336e-04
46            	4.061581e-01	1.944507e-01	2.117074e-01	6.957787e-02	1.916011e-01	-1.220232e-01	1.568122e-01	-8.628389e-03	6.238974e-03	9.591376e-03	1.103466e-02	-1.443286e-03
47            	4.062236e-01	1.946388e-01	2.115847e-01	6.970428e-02	1.915662e-01	-1.218619e-01	1.567140e-01	-8.472956e-03	6.683903e-03	9.208870e-03	1.128834e-02	-2.079468e-03
48            	4.064264e-01	1.948866e-01	2.115398e-01	6.990952e-02	1.915877e-01	-1.216781e-01	1.566329e-01	-8.326585e-03	7.244945e-03	8.790411e-03	1.164015e-02	-2.849739e-03
49            	4.068400e-01	1.953511e-01	2.114888e-01	7.014269e-02	1.915970e-01	-1.214543e-01	1.565256e-01	-8.068849e-03	7.861071e-03	8.160980e-03	1.194156e-02	-3.780581e-03
50            	4.073478e-01	1.960134e-01	2.113344e-01	7.043286e-02	1.916257e-01	-1.211929e-01	1.564093e-01	-7.660491e-03	8.443230e-03	7.181160e-03	1.203381e-02	-4.852649e-03
51            	4.080512e-01	1.969491e-01	2.111021e-01	7.074915e-02	1.916483e-01	-1.208992e-01	1.562738e-01	-7.076495e-03	8.920906e-03	5.809563e-03	1.182569e-02	-6.016125e-03
52            	4.088335e-01	1.980108e-01	2.108226e-01	7.114365e-02	1.917819e-01	-1.206382e-01	1.562100e-01	-6.405913e-03	9.274636e-03	4.137449e-03	1.134336e-02	-7.205911e-03
53            	4.097413e-01	1.990840e-01	2.106574e-01	7.161400e-02	1.920611e-01	-1.204471e-01	1.562541e-01	-5.786687e-03	9.537737e-03	2.467504e-03	1.077149e-02	-8.303985e-03
54            	4.105996e-01	1.999888e-01	2.106108e-01	7.203571e-02	1.923931e-01	-1.203574e-01	1.563753e-01	-5.311028e-03	9.675071e-03	1.004047e-03	1.017709e-02	-9.173047e-03
55            	4.114686e-01	2.007173e-01	2.107514e-01	7.233331e-02	1.927345e-01	-1.204012e-01	1.565678e-01	-5.017067e-03	9.719131e-03	-8.106668e-05	9.678598e-03	-9.759665e-03
56            	4.121901e-01	2.011822e-01	2.110079e-01	7.246190e-02	1.930221e-01	-1.205602e-01	1.567911e-01	-4.912891e-03	9.671839e-03	-7.376065e-04	9.303035e-03	-1.004064e-02
57            	4.129410e-01	2.015661e-01	2.113749e-01	7.245058e-02	1.932972e-01	-1.208466e-01	1.570719e-01	-4.904403e-03	9.550207e-03	-1.101120e-03	8.999647e-03	-1.010077e-02
58            	4.134757e-01	2.017901e-01	2.116855e-01	7.230155e-02	1.934776e-01	-1.211760e-01	1.573268e-01	-4.947695e-03	9.381246e-03	-1.264636e-03	8.748928e-03	-1.001356e-02
59            	4.140621e-01	2.020167e-01	2.120454e-01	7.203610e-02	1.936364e-01	-1.216003e-01	1.576184e-01	-5.014317e-03	9.207181e-03	-1.268795e-03	8.572784e-03	-9.841578e-03
60            	4.144580e-01	2.021140e-01	2.123441e-01	7.158031e-02	1.936389e-01	-1.220586e-01	1.578488e-01	-5.115054e-03	9.044210e-03	-1.135498e-03	8.476461e-03	-9.611959e-03
61            	4.148234e-01	2.021780e-01	2.126454e-01	7.108662e-02	1.935429e-01	-1.224562e-01	1.579995e-01	-5.233667e-03	8.958142e-03	-8.828923e-04	8.516696e-03	-9.399588e-03
62            	4.149677e-01	2.021128e-01	2.128549e-01	7.056087e-02	1.933626e-01	-1.228017e-01	1.580821e-01	-5.371039e-03	8.938722e-03	-5.801994e-04	8.648622e-03	-9.228821e-03
63            	4.151221e-01	2.019988e-01	2.131233e-01	6.997303e-02	1.931312e-01	-1.231582e-01	1.581447e-01	-5.562258e-03	8.982107e-03	-1.330158e-04	8.915599e-03	-9.048615e-03
64            	4.149639e-01	2.016992e-01	2.132647e-01	6.937143e-02	1.927884e-01	-1.234169e-01	1.581026e-01	-5.782732e-03	9.042663e-03	3.372465e-04	9.211287e-03	-8.874040e-03
65            	4.148469e-01	2.014440e-01	2.134029e-01	6.877458e-02	1.924321e-01	-1.236575e-01	1.580448e-01	-5.979428e-03	9.118975e-03	7.028698e-04	9.470410e-03	-8.767541e-03
66            	4.145549e-01	2.011196e-01	2.134353e-01	6.822368e-02	1.920476e-01	-1.238239e-01	1.579357e-01	-6.157833e-03	9.148178e-03	9.739164e-04	9.635136e-03	-8.661220e-03
67            	4.144479e-01	2.009410e-01	2.135069e-01	6.776413e-02	1.917457e-01	-1.239815e-01	1.578636e-01	-6.282931e-03	9.198136e-03	1.106857e-03	9.751564e-03	-8.644708e-03
68            	4.142659e-01	2.007271e-01	2.135388e-01	6.738465e-02	1.914668e-01	-1.240821e-01	1.577745e-01	-6.405832e-03	9.251899e-03	1.213571e-03	9.858685e-03	-8.645114e-03
69            	4.143478e-01	2.006454e-01	2.137024e-01	6.715145e-02	1.913546e-01	-1.242032e-01	1.577789e-01	-6.528482e-03	9.384815e-03	1.333817e-03	1.005172e-02	-8.717907e-03
70            	4.144363e-01	2.005395e-01	2.138969e-01	6.695265e-02	1.912811e-01	-1.243285e-01	1.578048e-01	-6.678698e-03	9.562193e-03	1.539011e-03	1.033170e-02	-8.792687e-03
71            	4.147332e-01	2.005284e-01	2.142048e-01	6.687493e-02	1.913153e-01	-1.244403e-01	1.578778e-01	-6.838214e-03	9.837265e-03	1.795710e-03	1.073512e-02	-8.939410e-03
72            	4.149032e-01	2.004006e-01	2.145025e-01	6.679437e-02	1.912828e-01	-1.244884e-01	1.578856e-01	-7.050954e-03	1.015204e-02	2.172033e-03	1.123805e-02	-9.066020e-03
73            	4.152397e-01	2.002858e-01	2.149539e-01	6.684324e-02	1.913355e-01	-1.244922e-01	1.579138e-01	-7.334020e-03	1.053568e-02	2.716716e-03	1.189404e-02	-9.177320e-03
74            	4.153442e-01	1.999783e-01	2.153659e-01	6.680757e-02	1.912180e-01	-1.244105e-01	1.578142e-01	-7.693758e-03	1.094737e-02	3.414947e-03	1.265484e-02	-9.239893e-03
75            	4.156184e-01	1.996936e-01	2.159248e-01	6.675942e-02	1.911223e-01	-1.243629e-01	1.577426e-01	-8.115591e-03	1.136515e-02	4.249579e-03	1.348994e-02	-9.240365e-03
76            	4.157225e-01	1.993235e-01	2.163990e-01	6.658842e-02	1.908976e-01	-1.243092e-01	1.576034e-01	-8.537788e-03	1.170824e-02	5.080822e-03	1.424866e-02	-9.167833e-03
77            	4.159925e-01	1.991387e-01	2.168537e-01	6.647587e-02	1.907309e-01	-1.242551e-01	1.574930e-01	-8.857481e-03	1.195071e-02	5.699593e-03	1.480051e-02	-9.100916e-03
78            	4.160459e-01	1.989887e-01	2.170571e-01	6.633877e-02	1.904863e-01	-1.241476e-01	1.573170e-01	-9.034195e-03	1.203798e-02	5.997274e-03	1.503662e-02	-9.039344e-03
79            	4.163169e-01	1.991045e-01	2.172124e-01	6.633805e-02	1.903835e-01	-1.240454e-01	1.572144e-01	-9.053951e-03	1.198363e-02	5.957859e-03	1.496256e-02	-9.004700e-03
80            	4.163583e-01	1.992195e-01	2.171388e-01	6.632617e-02	1.902252e-01	-1.238990e-01	1.570621e-01	-8.959667e-03	1.180964e-02	5.629155e-03	1.462421e-02	-8.995058e-03
81            	4.167231e-01	1.995280e-01	2.171951e-01	6.633959e-02	1.902584e-01	-1.239188e-01	1.570886e-01	-8.833538e-03	1.158059e-02	5.206077e-03	1.418363e-02	-8.977551e-03
82            	4.170059e-01	1.997333e-01	2.172726e-01	6.621059e-02	1.902644e-01	-1.240538e-01	1.571591e-01	-8.769671e-03	1.135032e-02	4.898613e-03	1.379963e-02	-8.901012e-03
83            	4.175462e-01	1.999445e-01	2.176017e-01	6.604100e-02	1.903919e-01	-1.243509e-01	1.573714e-01	-8.828577e-03	1.122724e-02	4.850639e-03	1.365256e-02	-8.801918e-03
84            	4.179585e-01	1.998881e-01	2.180704e-01	6.564831e-02	1.904536e-01	-1.248053e-01	1.576295e-01	-9.091179e-03	1.120605e-02	5.265914e-03	1.383901e-02	-8.573096e-03
85            	4.185619e-01	1.997407e-01	2.188212e-01	6.518313e-02	1.905641e-01	-1.253810e-01	1.579726e-01	-9.540262e-03	1.135283e-02	6.098746e-03	1.440221e-02	-8.303461e-03
86            	4.188487e-01	1.992562e-01	2.195925e-01	6.459280e-02	1.905065e-01	-1.259137e-01	1.582101e-01	-1.016818e-02	1.158785e-02	7.356054e-03	1.526587e-02	-7.909819e-03
87            	4.192298e-01	1.987393e-01	2.204905e-01	6.407126e-02	1.904915e-01	-1.264202e-01	1.584558e-01	-1.087563e-02	1.188355e-02	8.803301e-03	1.628520e-02	-7.481901e-03
88            	4.192951e-01	1.980545e-01	2.212405e-01	6.351113e-02	1.903096e-01	-1.267985e-01	1.585540e-01	-1.159299e-02	1.213675e-02	1.028766e-02	1.728058e-02	-6.992918e-03
89            	4.194339e-01	1.975039e-01	2.219300e-01	6.311301e-02	1.901589e-01	-1.270459e-01	1.586024e-01	-1.221309e-02	1.231806e-02	1.157968e-02	1.810790e-02	-6.528217e-03
90            	4.193078e-01	1.969228e-01	2.223850e-01	6.277489e-02	1.899108e-01	-1.271359e-01	1.585234e-01	-1.273112e-02	1.238780e-02	1.266237e-02	1.871898e-02	-6.056612e-03
91            	4.193809e-01	1.965673e-01	2.228136e-01	6.266229e-02	1.897935e-01	-1.271312e-01	1.584623e-01	-1.312314e-02	1.238644e-02	1.349747e-02	1.913517e-02	-5.637704e-03
92            	4.192230e-01	1.961951e-01	2.230279e-01	6.261717e-02	1.896189e-01	-1.270017e-01	1.583103e-01	-1.341641e-02	1.231229e-02	1.413162e-02	1.937810e-02	-5.246477e-03
93            	4.193185e-01	1.960148e-01	2.233037e-01	6.275863e-02	1.896335e-01	-1.268749e-01	1.582542e-01	-1.364445e-02	1.221558e-02	1.463460e-02	1.953288e-02	-4.898277e-03
94            	4.192144e-01	1.957498e-01	2.234646e-01	6.286735e-02	1.895894e-01	-1.267220e-01	1.581557e-01	-1.385739e-02	1.209940e-02	1.509536e-02	1.964707e-02	-4.551717e-03
95            	4.193396e-01	1.955918e-01	2.237478e-01	6.306837e-02	1.896952e-01	-1.266268e-01	1.581610e-01	-1.407799e-02	1.201340e-02	1.554688e-02	1.978684e-02	-4.239960e-03
96            	4.192981e-01	1.952880e-01	2.240101e-01	6.320295e-02	1.897741e-01	-1.265712e-01	1.581727e-01	-1.436103e-02	1.193578e-02	1.609018e-02	1.998087e-02	-3.890685e-03
97            	4.194798e-01	1.950289e-01	2.244509e-01	6.331372e-02	1.899378e-01	-1.266241e-01	1.582809e-01	-1.471098e-02	1.191738e-02	1.674906e-02	2.029191e-02	-3.542851e-03
98            	4.194135e-01	1.945647e-01	2.248488e-01	6.327016e-02	1.899522e-01	-1.266820e-01	1.583171e-01	-1.514205e-02	1.196003e-02	1.754325e-02	2.073166e-02	-3.188411e-03
99            	4.195446e-01	1.941364e-01	2.254082e-01	6.323746e-02	1.900476e-01	-1.268101e-01	1.584288e-01	-1.563588e-02	1.206533e-02	1.847379e-02	2.130222e-02	-2.828430e-03
100           	4.194535e-01	1.935623e-01	2.258912e-01	6.304936e-02	1.899737e-01	-1.269243e-01	1.584490e-01	-1.616447e-02	1.220444e-02	1.946304e-02	2.193596e-02	-2.472917e-03
101           	4.194754e-01	1.930662e-01	2.264092e-01	6.285073e-02	1.898825e-01	-1.270318e-01	1.584571e-01	-1.667147e-02	1.237752e-02	2.040754e-02	2.258129e-02	-2.173749e-03
102           	4.192096e-01	1.924608e-01	2.267488e-01	6.254786e-02	1.895988e-01	-1.270510e-01	1.583249e-01	-1.714404e-02	1.250384e-02	2.127302e-02	2.314035e-02	-1.867329e-03
103           	4.190563e-01	1.920126e-01	2.270437e-01	6.232858e-02	1.893454e-01	-1.270168e-01	1.581811e-01	-1.751554e-02	1.261339e-02	2.191469e-02	2.357074e-02	-1.656049e-03
104           	4.186842e-01	1.915817e-01	2.271026e-01	6.213022e-02	1.889905e-01	-1.268602e-01	1.579254e-01	-1.776046e-02	1.267105e-02	2.226195e-02	2.380202e-02	-1.540070e-03
105           	4.185029e-01	1.913592e-01	2.271437e-01	6.213605e-02	1.887740e-01	-1.266379e-01	1.577060e-01	-1.789228e-02	1.269468e-02	2.236850e-02	2.387893e-02	-1.510423e-03
106           	4.182361e-01	1.911800e-01	2.270561e-01	6.223753e-02	1.885854e-01	-1.263478e-01	1.574666e-01	-1.793805e-02	1.266616e-02	2.229521e-02	2.381376e-02	-1.518558e-03
107           	4.182611e-01	1.912116e-01	2.270495e-01	6.253720e-02	1.886123e-01	-1.260751e-01	1.573437e-01	-1.791897e-02	1.262349e-02	2.211657e-02	2.368178e-02	-1.565208e-03
108           	4.181895e-01	1.912119e-01	2.269776e-01	6.284389e-02	1.886371e-01	-1.257932e-01	1.572152e-01	-1.788289e-02	1.255251e-02	2.191329e-02	2.350915e-02	-1.595861e-03
109           	4.183245e-01	1.913294e-01	2.269950e-01	6.320034e-02	1.887677e-01	-1.255673e-01	1.571675e-01	-1.783278e-02	1.249997e-02	2.172811e-02	2.336403e-02	-1.635917e-03
110           	4.182945e-01	1.913457e-01	2.269488e-01	6.355280e-02	1.889083e-01	-1.253555e-01	1.571319e-01	-1.780154e-02	1.247007e-02	2.159382e-02	2.326698e-02	-1.673161e-03
111           	4.184679e-01	1.914162e-01	2.270517e-01	6.385103e-02	1.891037e-01	-1.252527e-01	1.571782e-01	-1.781777e-02	1.247706e-02	2.161721e-02	2.328566e-02	-1.668453e-03
112           	4.185245e-01	1.913640e-01	2.271605e-01	6.402371e-02	1.892351e-01	-1.252114e-01	1.572232e-01	-1.789827e-02	1.248485e-02	2.180543e-02	2.338757e-02	-1.582132e-03
113           	4.187524e-01	1.913894e-01	2.273630e-01	6.419252e-02	1.894393e-01	-1.252468e-01	1.573430e-01	-1.798680e-02	1.254386e-02	2.204086e-02	2.356429e-02	-1.523431e-03
114           	4.188350e-01	1.912994e-01	2.275357e-01	6.420987e-02	1.895414e-01	-1.253316e-01	1.574365e-01	-1.811815e-02	1.256386e-02	2.238721e-02	2.375746e-02	-1.370253e-03
115           	4.190416e-01	1.913039e-01	2.277377e-01	6.424780e-02	1.896932e-01	-1.254454e-01	1.575693e-01	-1.821688e-02	1.258956e-02	2.268584e-02	2.393247e-02	-1.246640e-03
116           	4.190766e-01	1.912237e-01	2.278529e-01	6.409932e-02	1.896949e-01	-1.255956e-01	1.576453e-01	-1.831461e-02	1.257241e-02	2.297380e-02	2.405931e-02	-1.085506e-03
117           	4.191878e-01	1.912195e-01	2.279683e-01	6.398565e-02	1.897106e-01	-1.257250e-01	1.577178e-01	-1.837444e-02	1.254223e-02	2.319155e-02	2.413801e-02	-9.464560e-04
118           	4.190762e-01	1.911113e-01	2.279649e-01	6.378971e-02	1.895977e-01	-1.258080e-01	1.577028e-01	-1.842677e-02	1.247147e-02	2.338710e-02	2.416502e-02	-7.779228e-04
119           	4.190596e-01	1.911057e-01	2.279539e-01	6.368653e-02	1.895460e-01	-1.258595e-01	1.577027e-01	-1.842409e-02	1.242270e-02	2.346518e-02	2.415529e-02	-6.901088e-04
120           	4.188418e-01	1.910018e-01	2.278400e-01	6.355192e-02	1.894001e-01	-1.258482e-01	1.576242e-01	-1.841908e-02	1.234823e-02	2.352860e-02	2.411253e-02	-5.839267e-04
121           	4.187642e-01	1.909885e-01	2.277757e-01	6.353972e-02	1.893603e-01	-1.258206e-01	1.575905e-01	-1.839359e-02	1.229971e-02	2.353324e-02	2.406633e-02	-5.330893e-04
122           	4.185148e-01	1.908932e-01	2.276216e-01	6.348641e-02	1.892381e-01	-1.257517e-01	1.574949e-01	-1.836419e-02	1.223090e-02	2.350439e-02	2.398310e-02	-4.787075e-04
123           	4.184136e-01	1.908505e-01	2.275631e-01	6.357544e-02	1.892237e-01	-1.256483e-01	1.574360e-01	-1.835631e-02	1.217200e-02	2.349581e-02	2.391991e-02	-4.240936e-04
124           	4.181353e-01	1.907471e-01	2.273882e-01	6.357210e-02	1.891215e-01	-1.255494e-01	1.573355e-01	-1.832054e-02	1.208257e-02	2.339316e-02	2.377914e-02	-3.859883e-04
125           	4.180432e-01	1.906964e-01	2.273468e-01	6.372189e-02	1.891529e-01	-1.254310e-01	1.572919e-01	-1.832523e-02	1.200856e-02	2.336120e-02	2.368916e-02	-3.279653e-04
126           	4.177691e-01	1.905745e-01	2.271946e-01	6.378563e-02	1.890637e-01	-1.252781e-01	1.571709e-01	-1.831003e-02	1.188676e-02	2.324080e-02	2.350716e-02	-2.663632e-04
127           	4.176687e-01	1.905057e-01	2.271630e-01	6.398132e-02	1.891016e-01	-1.251203e-01	1.571109e-01	-1.832866e-02	1.178053e-02	2.320355e-02	2.338231e-02	-1.787512e-04
128           	4.174739e-01	1.903928e-01	2.270811e-01	6.408677e-02	1.890707e-01	-1.249840e-01	1.570273e-01	-1.834415e-02	1.167073e-02	2.313385e-02	2.323765e-02	-1.038019e-04
129           	4.174453e-01	1.903500e-01	2.270953e-01	6.427506e-02	1.891262e-01	-1.248511e-01	1.569887e-01	-1.837264e-02	1.155999e-02	2.312191e-02	2.312095e-02	9.654619e-07
130           	4.172949e-01	1.902421e-01	2.270529e-01	6.438068e-02	1.891062e-01	-1.247256e-01	1.569159e-01	-1.840541e-02	1.144337e-02	2.313422e-02	2.301048e-02	1.237452e-04
131           	4.173134e-01	1.902192e-01	2.270943e-01	6.455362e-02	1.891874e-01	-1.246338e-01	1.569106e-01	-1.843754e-02	1.136410e-02	2.317600e-02	2.295211e-02	2.238960e-04
132           	4.172265e-01	1.901364e-01	2.270901e-01	6.459025e-02	1.891854e-01	-1.245951e-01	1.568903e-01	-1.847685e-02	1.127225e-02	2.324111e-02	2.289281e-02	3.483030e-04
133           	4.172828e-01	1.901367e-01	2.271461e-01	6.468077e-02	1.892668e-01	-1.245861e-01	1.569265e-01	-1.850467e-02	1.122103e-02	2.330831e-02	2.287519e-02	4.331257e-04
134           	4.172083e-01	1.900782e-01	2.271301e-01	6.463299e-02	1.892506e-01	-1.246176e-01	1.569341e-01	-1.852591e-02	1.118374e-02	2.335552e-02	2.286150e-02	4.940211e-04
135           	4.172736e-01	1.900879e-01	2.271857e-01	6.464666e-02	1.893104e-01	-1.246638e-01	1.569871e-01	-1.854894e-02	1.115840e-02	2.343333e-02	2.287506e-02	5.582638e-04
136           	4.171665e-01	1.900317e-01	2.271348e-01	6.453347e-02	1.892537e-01	-1.247202e-01	1.569869e-01	-1.855156e-02	1.114500e-02	2.345673e-02	2.287337e-02	5.833638e-04
137           	4.171781e-01	1.900576e-01	2.271205e-01	6.448725e-02	1.892571e-01	-1.247699e-01	1.570135e-01	-1.853145e-02	1.115357e-02	2.343841e-02	2.287277e-02	5.656398e-04
138           	4.170251e-01	1.900538e-01	2.269712e-01	6.433794e-02	1.891477e-01	-1.248097e-01	1.569787e-01	-1.845870e-02	1.117437e-02	2.330460e-02	2.282667e-02	4.779353e-04
139           	4.170252e-01	1.901345e-01	2.268907e-01	6.429803e-02	1.891271e-01	-1.248290e-01	1.569781e-01	-1.837814e-02	1.118246e-02	2.317502e-02	2.276997e-02	4.050517e-04
140           	4.168515e-01	1.902012e-01	2.266503e-01	6.414093e-02	1.889658e-01	-1.248249e-01	1.568953e-01	-1.822457e-02	1.119423e-02	2.287451e-02	2.263148e-02	2.430251e-04
141           	4.168464e-01	1.903883e-01	2.264581e-01	6.415493e-02	1.889313e-01	-1.247764e-01	1.568539e-01	-1.803492e-02	1.120611e-02	2.250665e-02	2.245943e-02	4.721252e-05
142           	4.166724e-01	1.905113e-01	2.261611e-01	6.413580e-02	1.888104e-01	-1.246746e-01	1.567425e-01	-1.782488e-02	1.119165e-02	2.208570e-02	2.223450e-02	-1.488047e-04
143           	4.166780e-01	1.907521e-01	2.259259e-01	6.423123e-02	1.887982e-01	-1.245669e-01	1.566826e-01	-1.758689e-02	1.118306e-02	2.161297e-02	2.198954e-02	-3.765743e-04
144           	4.165114e-01	1.909183e-01	2.255931e-01	6.432925e-02	1.887313e-01	-1.244021e-01	1.565667e-01	-1.733740e-02	1.114995e-02	2.110032e-02	2.170011e-02	-5.997913e-04
145           	4.165294e-01	1.911524e-01	2.253770e-01	6.449783e-02	1.887471e-01	-1.242493e-01	1.564982e-01	-1.711228e-02	1.110325e-02	2.066118e-02	2.143384e-02	-7.726604e-04
146           	4.163638e-01	1.912821e-01	2.250817e-01	6.464340e-02	1.886959e-01	-1.240525e-01	1.563742e-01	-1.689977e-02	1.106167e-02	2.022024e-02	2.117179e-02	-9.515512e-04
147           	4.163728e-01	1.914718e-01	2.249010e-01	6.485531e-02	1.887249e-01	-1.238696e-01	1.562973e-01	-1.671460e-02	1.102641e-02	1.984714e-02	2.094998e-02	-1.102842e-03
148           	4.161884e-01	1.915226e-01	2.246658e-01	6.496518e-02	1.886387e-01	-1.236735e-01	1.561561e-01	-1.657161e-02	1.098242e-02	1.955080e-02	2.075782e-02	-1.207024e-03
149           	4.161829e-01	1.916421e-01	2.245407e-01	6.513807e-02	1.886473e-01	-1.235093e-01	1.560783e-01	-1.644932e-02	1.097518e-02	1.929650e-02	2.062343e-02	-1.326929e-03
150           	4.159789e-01	1.916148e-01	2.243641e-01	6.518513e-02	1.885160e-01	-1.233309e-01	1.559234e-01	-1.637463e-02	1.093768e-02	1.914616e-02	2.051076e-02	-1.364603e-03
151           	4.159333e-01	1.916529e-01	2.242805e-01	6.535164e-02	1.885161e-01	-1.231644e-01	1.558403e-01	-1.631378e-02	1.093038e-02	1.903590e-02	2.044834e-02	-1.412433e-03
152           	4.157154e-01	1.915963e-01	2.241192e-01	6.542087e-02	1.884109e-01	-1.229900e-01	1.557005e-01	-1.626146e-02	1.090301e-02	1.893475e-02	2.037039e-02	-1.435636e-03
153           	4.156758e-01	1.916221e-01	2.240537e-01	6.556296e-02	1.883935e-01	-1.228305e-01	1.556120e-01	-1.621581e-02	1.087868e-02	1.887075e-02	2.031405e-02	-1.443303e-03
154           	4.154193e-01	1.915486e-01	2.238707e-01	6.564973e-02	1.882678e-01	-1.226180e-01	1.554429e-01	-1.616104e-02	1.082113e-02	1.878898e-02	2.021562e-02	-1.426643e-03
155           	4.153795e-01	1.915935e-01	2.237860e-01	6.582128e-02	1.882615e-01	-1.224403e-01	1.553509e-01	-1.609627e-02	1.078639e-02	1.869812e-02	2.013545e-02	-1.437327e-03
156           	4.151590e-01	1.915576e-01	2.236013e-01	6.593164e-02	1.881622e-01	-1.222306e-01	1.551964e-01	-1.602183e-02	1.071667e-02	1.857878e-02	2.000606e-02	-1.427281e-03
157           	4.151347e-01	1.916299e-01	2.235048e-01	6.612662e-02	1.881771e-01	-1.220505e-01	1.551138e-01	-1.593748e-02	1.066049e-02	1.845478e-02	1.988788e-02	-1.433099e-03
158           	4.149454e-01	1.916190e-01	2.233264e-01	6.622984e-02	1.880993e-01	-1.218695e-01	1.549844e-01	-1.585371e-02	1.060416e-02	1.831081e-02	1.975956e-02	-1.448752e-03
159           	4.149425e-01	1.916924e-01	2.232501e-01	6.636676e-02	1.880975e-01	-1.217307e-01	1.549141e-01	-1.577881e-02	1.053203e-02	1.821460e-02	1.963933e-02	-1.424725e-03
160           	4.147834e-01	1.916817e-01	2.231017e-01	6.641870e-02	1.880252e-01	-1.216065e-01	1.548158e-01	-1.570997e-02	1.046955e-02	1.811815e-02	1.952862e-02	-1.410473e-03
161           	4.147933e-01	1.917707e-01	2.230226e-01	6.648405e-02	1.880135e-01	-1.215294e-01	1.547714e-01	-1.562596e-02	1.042448e-02	1.800544e-02	1.942720e-02	-1.421760e-03
162           	4.146364e-01	1.917626e-01	2.228738e-01	6.648063e-02	1.879311e-01	-1.214505e-01	1.546908e-01	-1.555560e-02	1.037234e-02	1.793346e-02	1.933907e-02	-1.405610e-03
163           	4.146539e-01	1.918681e-01	2.227858e-01	6.650487e-02	1.879315e-01	-1.214267e-01	1.546791e-01	-1.545887e-02	1.032811e-02	1.782064e-02	1.923843e-02	-1.417797e-03
164           	4.145091e-01	1.919106e-01	2.225985e-01	6.643114e-02	1.878261e-01	-1.213950e-01	1.546105e-01	-1.534393e-02	1.027748e-02	1.767294e-02	1.911395e-02	-1.441008e-03
165           	4.145506e-01	1.920601e-01	2.224905e-01	6.641642e-02	1.878157e-01	-1.213993e-01	1.546075e-01	-1.521519e-02	1.024317e-02	1.750713e-02	1.899673e-02	-1.489606e-03
166           	4.144314e-01	1.921259e-01	2.223055e-01	6.633459e-02	1.877270e-01	-1.213924e-01	1.545597e-01	-1.508976e-02	1.018633e-02	1.733619e-02	1.885442e-02	-1.518236e-03
167           	4.144853e-01	1.923195e-01	2.221658e-01	6.629506e-02	1.877067e-01	-1.214116e-01	1.545591e-01	-1.492313e-02	1.016176e-02	1.707426e-02	1.869890e-02	-1.624631e-03