# Force and moment coefficients
# dragDir     : (1.000000e+00 0.000000e+00 0.000000e+00)
# sideDir     : (0.000000e+00 1.000000e+00 0.000000e+00)
# liftDir     : (0.000000e+00 0.000000e+00 1.000000e+00)
# rollAxis    : (1.000000e+00 0.000000e+00 0.000000e+00)
# pitchAxis   : (0.000000e+00 1.000000e+00 0.000000e+00)
# yawAxis     : (0.000000e+00 0.000000e+00 1.000000e+00)
# magUInf     : 2.000000e+01
# lRef        : 1.420000e+00
# Aref        : 7.500000e-01
# CofR        : (7.200000e-01 0.000000e+00 0.000000e+00)
#
# Time        	Cd            	Cd(f)         	Cd(r)         	Cl            	Cl(f)         	Cl(r)         	CmPitch       	CmRoll        	CmYaw         	Cs            	Cs(f)         	Cs(r)         
1             	1.754382e+00	8.774263e-01	8.769557e-01	-5.286430e-02	6.597700e-01	-7.126343e-01	6.862021e-01	2.353365e-04	-8.049505e-03	-6.269030e-03	-1.118402e-02	4.914990e-03
2             	1.640610e+00	8.206835e-01	8.199262e-01	-4.474563e-02	6.178841e-01	-6.626298e-01	6.402570e-01	3.786482e-04	-8.283103e-03	-6.308423e-03	-1.143731e-02	5.128892e-03
3             	8.392426e+04	1.372306e+04	7.020120e+04	3.993683e+04	3.484790e+04	5.088928e+03	1.487949e+04	-2.823907e+04	-5.103136e+04	8.177155e+04	-1.014559e+04	9.191714e+04
4             	-1.067980e+17	-2.150956e+18	2.044158e+18	-2.080839e+18	-1.845330e+18	-2.355095e+17	-8.049102e+17	-2.097557e+18	-1.178157e+18	3.241212e+18	4.424488e+17	2.798763e+18
